108
# CELL(abcABC):   17.84700    17.84700    17.84700    90.00000    90.00000    90.00000  Step:        5000  Bead:       0 positions{angstrom}  cell{angstrom}
      H2  2.14124e+00  2.84538e+00  2.70557e+00
      H2 -3.69981e-01  3.71431e+00  4.73122e+00
      H2 -1.73630e+00  1.50146e+00 -1.16128e+00
      H2 -1.21847e+00 -1.86331e+00  2.06786e-01
      H2 -2.65244e+00 -4.90601e+00  5.56257e+00
      H2 -4.73416e+00 -4.48975e+00  8.60825e+00
      H2  2.53186e+00  3.48136e+00 -3.73770e-01
      H2  8.98715e+00  9.03026e-01  7.63705e+00
      H2 -3.24318e+00 -2.58430e-01  6.10055e+00
      H2 -4.03469e+00  1.95322e+00  1.43614e+01
      H2 -5.67490e-01  3.49810e+00  1.89201e+01
      H2  2.14805e+00  6.60171e+00  1.60884e+01
      H2 -3.64177e+00  9.35044e-01  2.94262e+00
      H2  5.56776e+00  8.45141e+00  1.08315e+00
      H2  7.37318e+00  1.35694e+01  6.78652e+00
      H2  7.68506e+00  7.70421e+00  6.26964e+00
      H2  7.53594e+00  4.44570e+00  1.25990e+01
      H2 -1.77402e+00  8.96719e+00  1.22857e+01
      H2  3.58544e+00  1.31080e+01  9.76898e+00
      H2  5.28849e+00  1.52710e+00  3.87986e+00
      H2  9.11551e+00  1.01813e+01  1.08965e+01
      H2  8.58545e-01  1.17138e+01  1.15588e+01
      H2  6.65366e-01  9.07619e+00  1.44811e+01
      H2 -8.43232e-01  7.67687e+00  1.75041e+01
      H2 -1.94574e+00  1.25773e+01 -3.27473e+00
      H2 -3.40454e-01  1.78199e+01  2.73850e+00
      H2 -3.20280e+00  2.27800e+01 -5.19878e+00
      H2  3.14091e-01  1.20612e+01 -2.91133e-01
      H2 -6.67048e+00  8.64464e+00  4.18341e+00
      H2 -3.71016e+00  1.23637e+01  1.15813e+01
      H2  3.76591e+00  1.81861e+01  1.29200e+00
      H2  7.41146e-01  1.01918e+01  1.85014e+00
      H2  3.77143e+00  1.09564e+01  1.80800e+01
      H2 -6.64428e+00  1.65765e+01  1.57778e+01
      H2  4.59217e+00  1.39398e+01  1.29535e+01
      H2 -2.00707e+00  1.50512e+01  1.09963e+01
      H2  8.95582e+00 -2.48448e+00  3.82546e+00
      H2  1.57458e+00  4.68345e-01 -1.65228e+00
      H2  8.44979e+00  3.34052e+00  4.60521e+00
      H2  6.20983e+00 -1.99740e+00 -7.88441e-01
      H2  5.53219e+00 -1.79732e+00  9.87784e+00
      H2  8.66063e+00  1.81551e+00  1.04563e+01
      H2  1.04278e+01  2.55985e+00  1.60844e+00
      H2  1.33460e+01  1.93055e+00  9.89509e+00
      H2  8.89644e+00  9.82262e+00  1.39908e+01
      H2 -2.31520e-01 -1.42790e-01  1.33207e+01
      H2  6.83580e+00  8.70300e-01  1.83186e+01
      H2  8.54479e+00  7.16900e-01  1.42669e+01
      H2  4.91873e+00  8.48121e+00 -2.36626e+00
      H2  1.13994e+01  5.47310e+00  4.23824e+00
      H2  8.82401e+00  6.96547e+00  2.64731e+00
      H2  1.37962e+01  3.16695e+00  5.34125e+00
      H2  1.47707e+01  5.03429e+00 -5.43219e-01
      H2  9.60990e+00  9.91263e+00  1.13276e+00
      H2  1.39024e+01  5.03006e+00  2.46467e+00
      H2  7.47377e+00  1.47468e+01  1.38611e+01
      H2  1.18453e+01  3.76199e+00  1.63037e+01
      H2  6.10869e+00  1.16915e+01  1.54615e+01
      H2  1.23703e+01  1.17731e+01  1.50347e+01
      H2  9.85015e+00  5.39160e+00  1.49835e+01
      H2  8.36585e+00  1.06186e+01  4.39365e+00
      H2  1.96930e+00  1.46909e+01  1.22904e+00
      H2  1.76393e+00  2.06858e+01 -3.10810e+00
      H2  1.46127e+01  1.38792e+01  2.23531e+00
      H2  1.04377e+01  2.19155e+01  7.18508e+00
      H2  1.14830e+01  6.25743e+00  6.95680e-01
      H2 -1.10519e+00  8.90353e+00  7.60529e+00
      H2  1.60068e+01  1.16275e+01  9.09648e+00
      H2  1.13122e+01  1.28540e+01  2.59317e+00
      H2  3.17505e-01  1.45081e+01  1.48048e+01
      H2  1.24260e+01  1.44514e+01  1.27849e+01
      H2  1.06672e+00  1.55448e+01  1.15186e+01
      H2  1.71552e+01  1.56445e-01 -7.51770e+00
      H2  1.13297e+01  8.76998e+00 -1.40347e+00
      H2  1.51441e+01 -9.13171e-01 -2.67163e+00
      H2  1.76261e+01 -4.76259e+00  2.58780e+00
      H2  1.18369e+01 -1.26790e+00  7.73366e+00
      H2  1.13209e+01  1.29583e+00  5.35431e+00
      H2  9.92959e+00 -6.42322e+00  7.61398e+00
      H2  2.10647e+01 -1.79227e+00  3.97801e+00
      H2  1.10285e+01  4.18803e+00  1.19715e+01
      H2  1.39923e+01 -6.86163e-01  1.82096e+01
      H2  1.65366e+01  2.92656e+00  8.93139e+00
      H2  1.66693e+01  5.17701e+00  1.47359e+01
      H2  1.41652e+01  7.35372e+00  5.72665e+00
      H2  1.14456e+01  1.73033e+01  2.54135e+00
      H2  1.46008e+01  9.34856e+00  2.41197e+00
      H2  7.23142e+00  3.99035e+00  9.99991e-01
      H2  2.39419e+01  5.92034e+00  3.73024e+00
      H2  1.10596e+01  8.52890e+00  7.75828e+00
      H2  1.35527e+01  1.04194e+01  7.01924e+00
      H2  1.31369e+01  5.46075e+00  8.57472e+00
      H2  9.91234e+00 -5.09058e+00  1.66125e+01
      H2  6.14068e+00  1.26821e+01  1.89937e+01
      H2  1.35894e+01  7.57435e+00  1.08488e+01
      H2  1.43812e+01  9.04520e+00  1.56630e+01
      H2  3.97494e+00  1.10556e+01 -5.37972e+00
      H2  8.78594e+00  2.33701e+01  9.45607e+00
      H2  1.66816e+01  9.99728e+00  4.54725e+00
      H2  1.99711e+01  6.19536e+00  2.32653e+00
      H2  1.12454e+01  1.34517e+01  5.64828e+00
      H2  1.27652e+01  1.76970e+01  1.20525e+01
      H2  1.24521e+01  9.33520e+00  1.30275e+01
      H2  1.04707e+01  7.45233e+00  1.15454e+01
      H2  8.13993e+00  7.09517e+00  1.65732e+01
      H2  1.38985e+01  1.46811e+01  1.65404e+01
      H2  1.82936e+01  1.71290e+01  6.55678e+00
      H2  1.29616e+01  1.12824e+01  1.83971e+01
